# LAMMPS data file for GO/rGO membrane simulation

218 atoms
32 atom types
18 bonds
18 bond types
0 angles
13 angle types
0 dihedrals
0 dihedral types

-5.000000 17.452035 xlo xhi
-5.623815 13.521690 ylo yhi
-5.000000 22.429716 zlo zhi

Masses

1 12.011000   # C
2 15.999000   # O
3 1.008000   # H
4 12.011000   # C_carb
5 15.999000   # O_double
6 15.999000   # O_single
7 1.008000   # H_carb
8 15.999000   # OW
9 1.008000   # HW
10 14.007000   # N
11 12.011000   # CT
12 1.008000   # HC
13 1.008000   # HN
14 12.011000   # CA
15 32.066000   # S
16 15.999000   # OS
17 15.999000   # O_PES
18 1.008000   # HA
19 22.990000   # Na
20 35.453000   # Cl
21 39.098000   # K
22 24.305000   # Mg
23 40.078000   # Ca
24 207.200000   # Pb
25 112.411000   # Cd
26 65.380000   # Zn
27 58.693000   # Ni
28 15.999000   # OH
29 1.008000   # HO
30 51.450000   # ClO
31 96.060000   # SO4
32 61.020000   # HCO3
Atoms

1 1 1 0.19660 0.000000 0.000000 0.000000
2 1 1 0.19660 1.230000 0.000000 0.000000
3 1 1 0.19660 1.230000 2.130422 0.000000
4 1 1 0.19660 2.460000 2.130422 0.000000
5 1 1 0.19660 0.000000 4.260845 0.000000
6 1 1 0.19660 1.230000 4.260845 0.000000
7 1 1 0.19660 1.230000 6.391267 0.000000
8 1 1 0.19660 2.460000 6.391267 0.000000
9 1 1 0.19660 0.000000 8.521690 0.000000
10 1 1 0.19660 1.230000 8.521690 0.000000
11 1 1 0.19660 2.460000 0.000000 0.000000
12 1 1 0.19660 3.690000 0.000000 0.000000
13 1 1 0.19660 3.690000 2.130422 0.000000
14 1 1 0.19660 4.920000 2.130422 0.000000
15 1 1 0.19660 2.460000 4.260845 0.000000
16 1 1 0.19660 3.690000 4.260845 0.000000
17 1 1 0.19660 3.690000 6.391267 0.000000
18 1 1 0.19660 4.920000 6.391267 0.000000
19 1 1 0.19660 2.460000 8.521690 0.000000
20 1 1 0.19660 3.690000 8.521690 0.000000
21 1 1 0.19660 4.920000 0.000000 0.000000
22 1 1 0.19660 6.150000 0.000000 0.000000
23 1 1 0.19660 6.150000 2.130422 0.000000
24 1 1 0.19660 7.380000 2.130422 0.000000
25 1 1 0.19660 4.920000 4.260845 0.000000
26 1 1 0.19660 6.150000 4.260845 0.000000
27 1 1 0.19660 6.150000 6.391267 0.000000
28 1 1 0.19660 7.380000 6.391267 0.000000
29 1 1 0.19660 4.920000 8.521690 0.000000
30 1 1 0.19660 6.150000 8.521690 0.000000
31 1 1 0.19660 7.380000 0.000000 0.000000
32 1 1 0.19660 8.610000 0.000000 0.000000
33 1 1 0.19660 8.610000 2.130422 0.000000
34 1 1 0.19660 9.840000 2.130422 0.000000
35 1 1 0.19660 7.380000 4.260845 0.000000
36 1 1 0.19660 8.610000 4.260845 0.000000
37 1 1 0.19660 8.610000 6.391267 0.000000
38 1 1 0.19660 9.840000 6.391267 0.000000
39 1 1 0.19660 7.380000 8.521690 0.000000
40 1 1 0.19660 8.610000 8.521690 0.000000
41 1 1 0.19660 9.840000 0.000000 0.000000
42 1 1 0.19660 11.070000 0.000000 0.000000
43 1 1 0.19660 11.070000 2.130422 0.000000
44 1 1 0.19660 12.300000 2.130422 0.000000
45 1 1 0.19660 9.840000 4.260845 0.000000
46 1 1 0.19660 11.070000 4.260845 0.000000
47 1 1 0.19660 11.070000 6.391267 0.000000
48 1 1 0.19660 12.300000 6.391267 0.000000
49 1 1 0.19660 9.840000 8.521690 0.000000
50 1 1 0.19660 11.070000 8.521690 0.000000
51 1 2 -0.52600 6.150000 6.391267 1.400000
52 1 3 0.32940 6.150000 6.391267 2.000000
53 1 2 -0.52600 6.150000 0.000000 1.400000
54 1 3 0.32940 6.150000 0.000000 2.000000
55 1 2 -0.52600 1.230000 6.391267 1.400000
56 1 3 0.32940 1.230000 6.391267 2.000000
57 1 2 -0.52600 3.160000 4.260845 1.200000
58 1 2 -0.52600 11.070000 0.000000 1.400000
59 1 3 0.32940 11.070000 0.000000 2.000000
60 1 2 -0.52600 4.920000 2.130422 1.400000
61 1 3 0.32940 4.920000 2.130422 2.000000
62 1 2 -0.52600 2.460000 0.000000 1.400000
63 1 3 0.32940 2.460000 0.000000 2.000000
64 1 2 -0.52600 7.380000 2.130422 1.400000
65 1 3 0.32940 7.380000 2.130422 2.000000
66 1 2 -0.52600 12.300000 2.130422 1.400000
67 1 3 0.32940 12.300000 2.130422 2.000000
68 1 2 -0.52600 4.390000 0.000000 1.200000
69 1 8 -0.84760 5.584536 4.318816 6.192060
70 1 9 0.42380 4.782641 3.402796 5.765097
71 1 9 0.42380 6.513490 4.075831 6.331628
72 1 8 -0.84760 0.154278 6.565831 12.146018
73 1 9 0.42380 0.776903 7.419074 12.150073
74 1 9 0.42380 0.285861 5.957251 12.405812
75 1 8 -0.84760 10.768857 5.611536 14.881043
76 1 9 0.42380 11.664359 4.639140 15.236408
77 1 9 0.42380 10.595671 6.110217 14.969603
78 1 8 -0.84760 9.169390 6.195097 9.796058
79 1 9 0.42380 9.787354 6.468691 9.360156
80 1 9 0.42380 9.734101 6.290901 9.764505
81 1 8 -0.84760 9.560694 0.760728 14.917186
82 1 9 0.42380 10.254564 0.213453 15.332261
83 1 9 0.42380 10.038620 1.692832 14.819206
84 1 8 -0.84760 10.750256 6.571299 5.591070
85 1 9 0.42380 11.094283 5.701935 5.110383
86 1 9 0.42380 10.846484 5.763549 5.154751
87 1 8 -0.84760 11.242807 2.961214 10.349707
88 1 9 0.42380 10.424846 3.298154 10.661286
89 1 9 0.42380 10.739262 3.635919 10.129687
90 1 8 -0.84760 7.374658 3.828452 8.722116
91 1 9 0.42380 6.428722 3.753264 9.013366
92 1 9 0.42380 6.891275 4.395266 8.456917
93 1 8 -0.84760 1.828705 2.531001 12.810001
94 1 9 0.42380 2.221687 1.759661 12.765774
95 1 9 0.42380 1.706711 2.502490 13.187467
96 1 8 -0.84760 3.200030 2.652871 16.435096
97 1 9 0.42380 2.257189 2.748443 16.354060
98 1 9 0.42380 4.087818 1.849119 16.850657
99 1 8 -0.84760 9.420920 0.824556 15.084967
100 1 9 0.42380 9.878828 -0.062171 15.051572
101 1 9 0.42380 9.831999 -0.125348 15.327915
102 1 8 -0.84760 8.876220 7.206409 11.200021
103 1 9 0.42380 8.605559 7.956778 11.157747
104 1 9 0.42380 8.183754 7.869524 11.053063
105 1 8 -0.84760 7.629733 2.359179 9.553786
106 1 9 0.42380 6.921889 2.876314 9.366346
107 1 9 0.42380 6.976186 1.402003 9.245527
108 1 8 -0.84760 6.259329 2.573263 5.730844
109 1 9 0.42380 6.644177 2.659340 6.143657
110 1 9 0.42380 5.372907 3.422950 5.421719
111 1 8 -0.84760 11.072545 1.918354 7.612885
112 1 9 0.42380 11.722301 2.817050 7.914657
113 1 9 0.42380 11.986294 1.624625 7.705261
114 1 8 -0.84760 2.505425 0.209076 16.999138
115 1 9 0.42380 1.959566 -0.373233 16.851972
116 1 9 0.42380 1.920176 -0.420272 17.429716
117 1 8 -0.84760 11.259699 8.165869 14.342020
118 1 9 0.42380 10.331533 8.515493 14.355583
119 1 9 0.42380 12.211763 8.197467 13.846462
120 1 8 -0.84760 9.524202 5.209854 10.129842
121 1 9 0.42380 8.552393 5.726562 9.982940
122 1 9 0.42380 9.176200 5.795000 10.155682
123 1 8 -0.84760 8.264391 3.816703 14.304308
124 1 9 0.42380 7.386206 3.156516 14.314254
125 1 9 0.42380 9.180572 4.414186 14.101612
126 1 8 -0.84760 6.597517 5.617241 12.114568
127 1 9 0.42380 6.857761 4.944050 11.992129
128 1 9 0.42380 6.737282 6.477696 12.334420
129 1 8 -0.84760 4.829982 4.348659 11.762115
130 1 9 0.42380 4.127892 4.374988 11.522982
131 1 9 0.42380 5.595727 4.351706 11.886814
132 1 8 -0.84760 5.669713 4.403184 14.922663
133 1 9 0.42380 5.293628 4.030705 14.994228
134 1 9 0.42380 4.982070 4.949407 14.908086
135 1 8 -0.84760 8.167139 0.517725 11.663802
136 1 9 0.42380 8.125069 1.496672 11.969136
137 1 9 0.42380 8.918212 1.461228 11.851435
138 1 8 -0.84760 7.693109 6.762383 9.442202
139 1 9 0.42380 6.758018 6.840816 9.114661
140 1 9 0.42380 7.735498 6.168883 9.476604
141 1 8 -0.84760 7.549633 3.605416 8.569678
142 1 9 0.42380 6.713051 3.049604 8.258825
143 1 9 0.42380 6.665400 3.768433 8.536410
144 1 8 -0.84760 6.209295 5.595122 7.700969
145 1 9 0.42380 5.704032 5.110528 7.736418
146 1 9 0.42380 5.985864 4.880470 8.094516
147 1 8 -0.84760 11.985467 7.719779 6.307342
148 1 9 0.42380 11.489838 6.735542 6.380046
149 1 9 0.42380 12.452035 7.488776 6.710176
150 1 8 -0.84760 3.611576 2.573433 13.595809
151 1 9 0.42380 3.198435 2.025623 13.192404
152 1 9 0.42380 4.121058 3.143336 13.451965
153 1 8 -0.84760 4.156902 5.680794 15.031139
154 1 9 0.42380 4.671058 5.494276 15.120114
155 1 9 0.42380 3.597461 5.665820 14.751376
156 1 8 -0.84760 9.145698 2.738906 9.347788
157 1 9 0.42380 10.069947 3.147415 9.510176
158 1 9 0.42380 9.699939 3.037169 9.662760
159 1 8 -0.84760 8.762218 5.006154 16.381843
160 1 9 0.42380 9.569119 4.668079 16.260198
161 1 9 0.42380 7.776230 5.158126 16.692255
162 1 8 -0.84760 4.551587 6.194362 11.845873
163 1 9 0.42380 5.436904 6.755684 11.969563
164 1 9 0.42380 5.378640 6.676131 12.213310
165 1 8 -0.84760 3.424896 4.171834 9.899731
166 1 9 0.42380 4.195616 4.237693 10.327759
167 1 9 0.42380 2.938902 3.651170 9.680511
168 1 8 -0.84760 2.529586 8.488697 12.832989
169 1 9 0.42380 2.696799 8.195873 12.769132
170 1 9 0.42380 3.265700 7.860641 12.634703
171 1 8 -0.84760 4.423734 2.412762 12.338522
172 1 9 0.42380 3.533352 2.816367 12.340866
173 1 9 0.42380 4.099568 2.110715 12.056736
174 1 8 -0.84760 6.578812 2.257885 14.772267
175 1 9 0.42380 6.299356 1.989369 14.329332
176 1 9 0.42380 7.070981 1.683831 14.690062
177 1 8 -0.84760 6.980001 0.792506 12.828223
178 1 9 0.42380 7.394012 1.169158 12.794536
179 1 9 0.42380 7.044868 1.274639 12.693012
180 1 8 -0.84760 0.703074 4.281834 10.388572
181 1 9 0.42380 0.556412 4.179063 10.562124
182 1 9 0.42380 0.701340 4.346451 10.033472
183 1 8 -0.84760 6.814810 7.704989 12.839413
184 1 9 0.42380 6.193603 8.513033 12.353261
185 1 9 0.42380 6.081525 8.287264 13.165800
186 1 8 -0.84760 7.378056 5.447326 14.455591
187 1 9 0.42380 7.986353 6.395247 14.063579
188 1 9 0.42380 6.622618 4.971055 14.093097
189 1 8 -0.84760 9.211997 2.966456 12.094420
190 1 9 0.42380 9.819340 3.334481 11.779927
191 1 9 0.42380 8.628481 3.402729 12.311726
192 1 8 -0.84760 6.797891 0.386191 8.553481
193 1 9 0.42380 6.273225 0.055682 8.787656
194 1 9 0.42380 7.397615 -0.390317 8.254526
195 1 8 -0.84760 8.260073 0.093838 8.713191
196 1 9 0.42380 7.321151 0.781667 8.379440
197 1 9 0.42380 7.667332 -0.623815 8.737471
198 1 8 -0.84760 10.314513 0.885499 8.102639
199 1 9 0.42380 10.871229 1.103832 8.056865
200 1 9 0.42380 10.268294 -0.003008 8.305800
201 1 8 -0.84760 5.637356 0.644587 11.279277
202 1 9 0.42380 6.028799 -0.123681 11.231881
203 1 9 0.42380 4.843226 -0.029426 11.007036
204 1 8 -0.84760 6.634999 4.319242 10.845151
205 1 9 0.42380 7.620002 3.513033 10.449876
206 1 9 0.42380 5.728692 4.932402 10.518686
207 1 8 -0.84760 0.184200 2.168255 9.759072
208 1 9 0.42380 0.771433 3.019840 9.658083
209 1 9 0.42380 1.173495 3.057344 9.895671
210 1 8 -0.84760 7.908719 7.905610 15.361968
211 1 9 0.42380 8.137488 7.263502 15.712589
212 1 9 0.42380 8.260327 8.034686 15.717558
213 1 8 -0.84760 6.546999 0.766449 11.714145
214 1 9 0.42380 6.880488 1.184926 11.968007
215 1 9 0.42380 6.929172 0.918323 12.044638
216 1 8 -0.84760 0.890457 3.783105 7.033435
217 1 9 0.42380 1.201324 4.455654 6.625960
218 1 9 0.42380 0.180035 2.913365 7.412141

Bonds

1 2 27 51
2 3 51 52
3 2 22 53
4 3 53 54
5 2 7 55
6 3 55 56
7 2 16 57
8 2 42 58
9 3 58 59
10 2 14 60
11 3 60 61
12 2 11 62
13 3 62 63
14 2 24 64
15 3 64 65
16 2 44 66
17 3 66 67
18 2 21 68
