# LAMMPS data file for GO/rGO membrane simulation

210 atoms
32 atom types
10 bonds
18 bond types
0 angles
13 angle types
0 dihedrals
0 dihedral types

-15.518432 27.300000 xlo xhi
-15.144239 24.512238 ylo yhi
-15.000000 31.365571 zlo zhi

Masses

1 12.011000   # C
2 15.999000   # O
3 1.008000   # H
4 12.011000   # C_carb
5 15.999000   # O_double
6 15.999000   # O_single
7 1.008000   # H_carb
8 15.999000   # OW
9 1.008000   # HW
10 14.007000   # N
11 12.011000   # CT
12 1.008000   # HC
13 1.008000   # HN
14 12.011000   # CA
15 32.066000   # S
16 15.999000   # OS
17 15.999000   # O_PES
18 1.008000   # HA
19 22.990000   # Na
20 35.453000   # Cl
21 39.098000   # K
22 24.305000   # Mg
23 40.078000   # Ca
24 207.200000   # Pb
25 112.411000   # Cd
26 65.380000   # Zn
27 58.693000   # Ni
28 15.999000   # OH
29 1.008000   # HO
30 51.450000   # ClO
31 96.060000   # SO4
32 61.020000   # HCO3
Atoms

1 1 1 0.19660 0.000000 0.000000 0.000000
2 1 1 0.19660 1.230000 0.000000 0.000000
3 1 1 0.19660 1.230000 2.130422 0.000000
4 1 1 0.19660 2.460000 2.130422 0.000000
5 1 1 0.19660 0.000000 4.260845 0.000000
6 1 1 0.19660 1.230000 4.260845 0.000000
7 1 1 0.19660 1.230000 6.391267 0.000000
8 1 1 0.19660 2.460000 6.391267 0.000000
9 1 1 0.19660 0.000000 8.521690 0.000000
10 1 1 0.19660 1.230000 8.521690 0.000000
11 1 1 0.19660 2.460000 0.000000 0.000000
12 1 1 0.19660 3.690000 0.000000 0.000000
13 1 1 0.19660 3.690000 2.130422 0.000000
14 1 1 0.19660 4.920000 2.130422 0.000000
15 1 1 0.19660 2.460000 4.260845 0.000000
16 1 1 0.19660 3.690000 4.260845 0.000000
17 1 1 0.19660 3.690000 6.391267 0.000000
18 1 1 0.19660 4.920000 6.391267 0.000000
19 1 1 0.19660 2.460000 8.521690 0.000000
20 1 1 0.19660 3.690000 8.521690 0.000000
21 1 1 0.19660 4.920000 0.000000 0.000000
22 1 1 0.19660 6.150000 0.000000 0.000000
23 1 1 0.19660 6.150000 2.130422 0.000000
24 1 1 0.19660 7.380000 2.130422 0.000000
25 1 1 0.19660 4.920000 4.260845 0.000000
26 1 1 0.19660 6.150000 4.260845 0.000000
27 1 1 0.19660 6.150000 6.391267 0.000000
28 1 1 0.19660 7.380000 6.391267 0.000000
29 1 1 0.19660 4.920000 8.521690 0.000000
30 1 1 0.19660 6.150000 8.521690 0.000000
31 1 1 0.19660 7.380000 0.000000 0.000000
32 1 1 0.19660 8.610000 0.000000 0.000000
33 1 1 0.19660 8.610000 2.130422 0.000000
34 1 1 0.19660 9.840000 2.130422 0.000000
35 1 1 0.19660 7.380000 4.260845 0.000000
36 1 1 0.19660 8.610000 4.260845 0.000000
37 1 1 0.19660 8.610000 6.391267 0.000000
38 1 1 0.19660 9.840000 6.391267 0.000000
39 1 1 0.19660 7.380000 8.521690 0.000000
40 1 1 0.19660 8.610000 8.521690 0.000000
41 1 1 0.19660 9.840000 0.000000 0.000000
42 1 1 0.19660 11.070000 0.000000 0.000000
43 1 1 0.19660 11.070000 2.130422 0.000000
44 1 1 0.19660 12.300000 2.130422 0.000000
45 1 1 0.19660 9.840000 4.260845 0.000000
46 1 1 0.19660 11.070000 4.260845 0.000000
47 1 1 0.19660 11.070000 6.391267 0.000000
48 1 1 0.19660 12.300000 6.391267 0.000000
49 1 1 0.19660 9.840000 8.521690 0.000000
50 1 1 0.19660 11.070000 8.521690 0.000000
51 1 2 -0.52600 4.920000 6.391267 1.400000
52 1 2 -0.52600 2.460000 2.130422 1.400000
53 1 2 -0.52600 6.850000 2.130422 1.200000
54 1 2 -0.52600 9.840000 8.521690 1.400000
55 1 2 -0.52600 7.380000 6.391267 1.400000
56 1 2 -0.52600 0.000000 0.000000 1.400000
57 1 2 -0.52600 11.770000 8.521690 1.200000
58 1 2 -0.52600 11.070000 0.000000 1.400000
59 1 2 -0.52600 1.230000 0.000000 1.400000
60 1 2 -0.52600 2.460000 6.391267 1.400000
61 1 8 -0.84760 9.241895 3.425644 9.746447
62 1 9 0.42380 8.370452 3.579243 9.384366
63 1 9 0.42380 9.991695 2.931354 9.992022
64 1 8 -0.84760 6.175940 7.124650 13.552759
65 1 9 0.42380 6.323766 7.121197 13.219091
66 1 9 0.42380 5.905594 7.840193 13.059443
67 1 8 -0.84760 1.225937 0.759225 9.474080
68 1 9 0.42380 0.248422 1.507350 9.787785
69 1 9 0.42380 1.043726 1.081047 9.921582
70 1 8 -0.84760 10.312315 1.611974 12.485038
71 1 9 0.42380 10.265743 1.465012 12.030451
72 1 9 0.42380 10.195853 1.073172 12.864245
73 1 8 -0.84760 5.070378 6.983760 15.201562
74 1 9 0.42380 5.043910 6.054475 14.741679
75 1 9 0.42380 5.115259 6.991775 15.146417
76 1 8 -0.84760 7.984588 8.031366 4.920543
77 1 9 0.42380 7.071112 8.031947 4.961624
78 1 9 0.42380 8.398220 7.086475 4.473479
79 1 8 -0.84760 8.556317 8.250344 7.793672
80 1 9 0.42380 9.352638 8.486916 8.255805
81 1 9 0.42380 9.119707 7.751724 7.600044
82 1 8 -0.84760 4.535285 4.345829 6.038482
83 1 9 0.42380 3.829783 4.686225 5.817035
84 1 9 0.42380 4.183278 3.522928 6.264247
85 1 8 -0.84760 10.639446 0.119885 8.753187
86 1 9 0.42380 10.641706 -0.041794 8.417418
87 1 9 0.42380 10.192150 0.163206 8.861701
88 1 8 -0.84760 3.308320 3.608067 6.688576
89 1 9 0.42380 3.032650 3.515609 6.703627
90 1 9 0.42380 3.525704 4.025939 6.490965
91 1 8 -0.84760 3.249645 0.833458 11.348175
92 1 9 0.42380 2.777084 1.286298 11.488493
93 1 9 0.42380 3.694561 0.402193 11.050090
94 1 8 -0.84760 6.235360 4.777177 9.101389
95 1 9 0.42380 7.144956 4.344075 9.355109
96 1 9 0.42380 6.816920 4.041149 9.040814
97 1 8 -0.84760 0.079596 5.580357 14.867671
98 1 9 0.42380 -0.518432 4.609408 14.625421
99 1 9 0.42380 -0.082725 5.381753 15.091895
100 1 8 -0.84760 1.215502 8.336254 5.102362
101 1 9 0.42380 1.680558 9.162556 5.313380
102 1 9 0.42380 1.001078 9.111944 5.523857
103 1 8 -0.84760 5.920787 5.232475 12.570479
104 1 9 0.42380 6.491917 4.473405 12.329329
105 1 9 0.42380 6.530562 4.760413 12.261122
106 1 8 -0.84760 1.996179 7.144207 7.143867
107 1 9 0.42380 2.897981 6.738665 7.547661
108 1 9 0.42380 1.500357 7.451506 6.852271
109 1 8 -0.84760 8.118716 7.982881 11.015260
110 1 9 0.42380 8.967603 8.939175 11.436633
111 1 9 0.42380 8.264440 8.963611 10.993654
112 1 8 -0.84760 3.356128 0.004230 14.091074
113 1 9 0.42380 3.865784 0.214834 14.020716
114 1 9 0.42380 2.792079 0.331291 13.973727
115 1 8 -0.84760 1.353987 6.297706 16.296983
116 1 9 0.42380 1.490423 6.010727 16.365571
117 1 9 0.42380 1.284626 6.892737 15.859302
118 1 8 -0.84760 6.110466 7.446404 6.951021
119 1 9 0.42380 6.993114 7.092859 6.507443
120 1 9 0.42380 7.095999 7.366218 7.398763
121 1 8 -0.84760 2.089006 7.694802 15.021304
122 1 9 0.42380 1.186597 7.208480 14.761898
123 1 9 0.42380 1.219931 7.315504 14.585274
124 1 8 -0.84760 0.601844 8.116634 10.888072
125 1 9 0.42380 -0.320312 8.094630 10.524410
126 1 9 0.42380 0.835351 8.205769 10.611654
127 1 8 -0.84760 2.039476 6.412852 14.782622
128 1 9 0.42380 2.626882 6.284931 15.074592
129 1 9 0.42380 1.231344 6.937577 14.288708
130 1 8 -0.84760 3.107900 1.873440 6.583403
131 1 9 0.42380 3.903197 1.341909 6.922790
132 1 9 0.42380 3.140903 2.432869 6.428532
133 1 8 -0.84760 0.091207 8.516694 10.676803
134 1 9 0.42380 -0.505272 7.859323 10.707855
135 1 9 0.42380 0.186285 9.512238 10.425150
136 1 8 -0.84760 6.925180 3.611120 10.497465
137 1 9 0.42380 7.463389 4.361735 10.494221
138 1 9 0.42380 6.784109 4.480986 10.836859
139 1 8 -0.84760 8.819200 6.564871 13.010892
140 1 9 0.42380 8.655342 5.744178 12.665968
141 1 9 0.42380 7.963255 6.939503 12.843264
142 1 8 -0.84760 2.780595 4.233964 5.298512
143 1 9 0.42380 2.336283 5.204495 4.934957
144 1 9 0.42380 3.080454 4.041926 5.171720
145 1 8 -0.84760 2.942820 2.805831 13.633930
146 1 9 0.42380 2.434330 3.739464 13.428985
147 1 9 0.42380 3.222693 2.591276 13.206863
148 1 8 -0.84760 0.199224 6.267508 8.358677
149 1 9 0.42380 -0.260390 6.433258 8.440283
150 1 9 0.42380 0.969727 5.598280 8.134574
151 1 8 -0.84760 2.927423 4.678247 6.770775
152 1 9 0.42380 3.202039 3.829419 7.053916
153 1 9 0.42380 2.644807 3.836001 7.029012
154 1 8 -0.84760 8.968567 4.702740 6.736985
155 1 9 0.42380 9.179421 3.861259 6.689196
156 1 9 0.42380 9.001537 5.345732 6.243110
157 1 8 -0.84760 8.423131 2.131413 5.362789
158 1 9 0.42380 7.544502 1.542161 5.323288
159 1 9 0.42380 9.094912 2.704094 5.809787
160 1 8 -0.84760 0.323678 0.633565 7.561158
161 1 9 0.42380 0.221423 -0.144239 7.843531
162 1 9 0.42380 1.201015 1.556323 7.962905
163 1 8 -0.84760 2.156837 5.818713 13.793020
164 1 9 0.42380 3.065138 6.059906 13.550845
165 1 9 0.42380 1.377543 6.017893 13.999174
166 1 8 -0.84760 11.171956 1.315031 10.574779
167 1 9 0.42380 10.451116 1.157454 10.449430
168 1 9 0.42380 11.307343 1.372846 10.397527
169 1 8 -0.84760 7.621000 6.211754 14.336063
170 1 9 0.42380 7.072891 6.613079 14.229775
171 1 9 0.42380 8.375088 5.234050 14.262652
172 1 8 -0.84760 9.544991 2.314613 8.954756
173 1 9 0.42380 9.327367 1.565057 8.636267
174 1 9 0.42380 8.955729 2.635832 8.769405
175 1 8 -0.84760 0.964269 5.181899 13.237401
176 1 9 0.42380 1.112382 4.284796 13.410424
177 1 9 0.42380 1.729310 6.100144 13.523799
178 1 8 -0.84760 9.913318 6.079752 7.185830
179 1 9 0.42380 9.764682 5.663922 7.232174
180 1 9 0.42380 10.522421 6.878762 7.595907
181 1 8 -0.84760 2.633496 5.917433 12.730144
182 1 9 0.42380 2.155479 5.913586 12.560588
183 1 9 0.42380 1.879381 5.341087 13.115037
184 1 8 -0.84760 5.904352 8.385327 5.173921
185 1 9 0.42380 6.835173 7.695836 5.222397
186 1 9 0.42380 5.897863 9.041964 5.497295
187 1 8 -0.84760 6.705410 4.829448 7.354815
188 1 9 0.42380 7.321501 3.864138 7.761968
189 1 9 0.42380 5.718338 4.696829 6.905965
190 1 8 -0.84760 0.449956 4.303530 13.515275
191 1 9 0.42380 0.173126 4.775532 13.547225
192 1 9 0.42380 -0.226823 4.314223 13.987512
193 1 8 -0.84760 7.711841 6.811874 11.022994
194 1 9 0.42380 8.646061 6.538552 11.179146
195 1 9 0.42380 6.983533 6.482490 10.568750
196 1 8 -0.84760 9.439798 0.563032 12.126328
197 1 9 0.42380 9.289794 1.357668 12.100492
198 1 9 0.42380 9.174146 0.418143 12.321761
199 1 8 -0.84760 4.342591 1.945295 11.704246
200 1 9 0.42380 4.363676 1.117513 11.784741
201 1 9 0.42380 4.362248 2.440654 11.709519
202 1 8 -0.84760 2.953393 3.673994 11.772891
203 1 9 0.42380 3.688905 3.090030 12.208155
204 1 9 0.42380 2.212433 4.598398 11.983688
205 1 8 -0.84760 10.559426 6.553573 8.824666
206 1 9 0.42380 10.139276 5.955603 9.172720
207 1 9 0.42380 9.570536 5.798142 9.190617
208 1 8 -0.84760 2.435221 8.027749 9.363269
209 1 9 0.42380 2.257840 7.544497 9.635398
210 1 9 0.42380 2.847116 7.263175 9.645461

Bonds

1 2 18 51
2 2 4 52
3 2 24 53
4 2 49 54
5 2 28 55
6 2 1 56
7 2 50 57
8 2 42 58
9 2 2 59
10 2 8 60
