ITEM: TIMESTEP
0
ITEM: NUMBER OF ATOMS
210
ITEM: BOX BOUNDS pp pp ff
-1.5518432000000001e+01 2.7300000000000001e+01
-1.5144239000000001e+01 2.4512238000000000e+01
-1.5000000000000000e+01 3.1365570999999999e+01
ITEM: ATOMS id type x y z
1 1 0 0 0
2 1 1.23 0 0
3 1 1.23 2.13042 0
4 1 2.46 2.13042 0
5 1 0 4.26084 0
6 1 1.23 4.26084 0
11 1 2.46 0 0
15 1 2.46 4.26084 0
52 2 2.46 2.13042 1.4
56 2 0 0 1.4
59 2 1.23 0 1.4
12 1 3.69 0 0
13 1 3.69 2.13042 0
14 1 4.92 2.13042 0
16 1 3.69 4.26084 0
21 1 4.92 0 0
22 1 6.15 0 0
23 1 6.15 2.13042 0
24 1 7.38 2.13042 0
25 1 4.92 4.26084 0
26 1 6.15 4.26084 0
31 1 7.38 0 0
32 1 8.61 0 0
33 1 8.61 2.13042 0
35 1 7.38 4.26084 0
36 1 8.61 4.26084 0
53 2 6.85 2.13042 1.2
34 1 9.84 2.13042 0
41 1 9.84 0 0
42 1 11.07 0 0
43 1 11.07 2.13042 0
44 1 12.3 2.13042 0
45 1 9.84 4.26084 0
46 1 11.07 4.26084 0
58 2 11.07 0 1.4
7 1 1.23 6.39127 0
8 1 2.46 6.39127 0
9 1 0 8.52169 0
10 1 1.23 8.52169 0
19 1 2.46 8.52169 0
60 2 2.46 6.39127 1.4
17 1 3.69 6.39127 0
18 1 4.92 6.39127 0
20 1 3.69 8.52169 0
27 1 6.15 6.39127 0
28 1 7.38 6.39127 0
29 1 4.92 8.52169 0
30 1 6.15 8.52169 0
37 1 8.61 6.39127 0
39 1 7.38 8.52169 0
40 1 8.61 8.52169 0
51 2 4.92 6.39127 1.4
55 2 7.38 6.39127 1.4
78 9 8.39822 7.08648 4.47348
38 1 9.84 6.39127 0
47 1 11.07 6.39127 0
48 1 12.3 6.39127 0
49 1 9.84 8.52169 0
50 1 11.07 8.52169 0
54 2 9.84 8.52169 1.4
57 2 11.77 8.52169 1.2
67 8 1.22594 0.759225 9.47408
68 9 0.248422 1.50735 9.78778
69 9 1.04373 1.08105 9.92158
92 9 2.77708 1.2863 11.4885
142 8 2.78059 4.23396 5.29851
153 9 2.64481 3.836 7.02901
160 8 0.323678 0.633565 7.56116
161 9 0.221423 -0.144239 7.84353
162 9 1.20101 1.55632 7.96291
62 9 8.37045 3.57924 9.38437
82 8 4.53529 4.34583 6.03848
84 9 4.18328 3.52293 6.26425
88 8 3.30832 3.60807 6.68858
89 9 3.03265 3.51561 6.70363
90 9 3.5257 4.02594 6.49097
91 8 3.24965 0.833458 11.3482
93 9 3.69456 0.402193 11.0501
95 9 7.14496 4.34408 9.35511
96 9 6.81692 4.04115 9.04081
130 8 3.1079 1.87344 6.5834
131 9 3.9032 1.34191 6.92279
132 9 3.1409 2.43287 6.42853
136 8 6.92518 3.61112 10.4975
137 9 7.46339 4.36174 10.4942
138 9 6.78411 4.48099 10.8369
144 9 3.08045 4.04193 5.17172
151 8 2.92742 4.67825 6.77078
152 9 3.20204 3.82942 7.05392
157 8 8.42313 2.13141 5.36279
158 9 7.5445 1.54216 5.32329
188 9 7.3215 3.86414 7.76197
61 8 9.24189 3.42564 9.74645
63 9 9.99169 2.93135 9.99202
85 8 10.6394 0.119885 8.75319
86 9 10.6417 -0.041794 8.41742
87 9 10.1921 0.163206 8.8617
155 9 9.17942 3.86126 6.6892
159 9 9.09491 2.70409 5.80979
166 8 11.172 1.31503 10.5748
167 9 10.4511 1.15745 10.4494
168 9 11.3073 1.37285 10.3975
172 8 9.54499 2.31461 8.95476
173 9 9.32737 1.56506 8.63627
174 9 8.95573 2.63583 8.76941
100 8 1.2155 8.33625 5.10236
101 9 1.68056 9.16256 5.31338
102 9 1.00108 9.11194 5.52386
106 8 1.99618 7.14421 7.14387
108 9 1.50036 7.45151 6.85227
124 8 0.601844 8.11663 10.8881
125 9 -0.320312 8.09463 10.5244
126 9 0.835351 8.20577 10.6117
133 8 0.091207 8.51669 10.6768
134 9 -0.505272 7.85932 10.7079
135 9 0.186285 9.51224 10.4252
143 9 2.33628 5.20449 4.93496
148 8 0.199224 6.26751 8.35868
149 9 -0.26039 6.43326 8.44028
150 9 0.969727 5.59828 8.13457
208 8 2.43522 8.02775 9.36327
209 9 2.25784 7.5445 9.6354
76 8 7.98459 8.03137 4.92054
77 9 7.07111 8.03195 4.96162
79 8 8.55632 8.25034 7.79367
83 9 3.82978 4.68623 5.81703
94 8 6.23536 4.77718 9.10139
107 9 2.89798 6.73867 7.54766
109 8 8.11872 7.98288 11.0153
111 9 8.26444 8.96361 10.9937
118 8 6.11047 7.4464 6.95102
119 9 6.99311 7.09286 6.50744
120 9 7.096 7.36622 7.39876
184 8 5.90435 8.38533 5.17392
185 9 6.83517 7.69584 5.2224
186 9 5.89786 9.04196 5.4973
187 8 6.70541 4.82945 7.35482
189 9 5.71834 4.69683 6.90597
193 8 7.71184 6.81187 11.023
194 9 8.64606 6.53855 11.1791
195 9 6.98353 6.48249 10.5687
210 9 2.84712 7.26318 9.64546
80 9 9.35264 8.48692 8.25581
81 9 9.11971 7.75172 7.60004
110 9 8.9676 8.93918 11.4366
154 8 8.96857 4.70274 6.73698
156 9 9.00154 5.34573 6.24311
178 8 9.91332 6.07975 7.18583
179 9 9.76468 5.66392 7.23217
180 9 10.5224 6.87876 7.59591
205 8 10.5594 6.55357 8.82467
206 9 10.1393 5.9556 9.17272
207 9 9.57054 5.79814 9.19062
98 9 -0.518432 4.60941 14.6254
114 9 2.79208 0.331291 13.9737
146 9 2.43433 3.73946 13.429
176 9 1.11238 4.2848 13.4104
190 8 0.449956 4.30353 13.5153
192 9 -0.226823 4.31422 13.9875
204 9 2.21243 4.5984 11.9837
104 9 6.49192 4.4734 12.3293
112 8 3.35613 0.00423 14.0911
113 9 3.86578 0.214834 14.0207
145 8 2.94282 2.80583 13.6339
147 9 3.22269 2.59128 13.2069
199 8 4.34259 1.94529 11.7042
200 9 4.36368 1.11751 11.7847
201 9 4.36225 2.44065 11.7095
202 8 2.95339 3.67399 11.7729
203 9 3.68891 3.09003 12.2082
70 8 10.3123 1.61197 12.485
71 9 10.2657 1.46501 12.0305
72 9 10.1959 1.07317 12.8642
196 8 9.4398 0.563032 12.1263
197 9 9.28979 1.35767 12.1005
198 9 9.17415 0.418143 12.3218
97 8 0.079596 5.58036 14.8677
99 9 -0.082725 5.38175 15.0919
115 8 1.35399 6.29771 16.297
116 9 1.49042 6.01073 16.3656
117 9 1.28463 6.89274 15.8593
121 8 2.08901 7.6948 15.0213
122 9 1.1866 7.20848 14.7619
123 9 1.21993 7.3155 14.5853
127 8 2.03948 6.41285 14.7826
128 9 2.62688 6.28493 15.0746
129 9 1.23134 6.93758 14.2887
163 8 2.15684 5.81871 13.793
165 9 1.37754 6.01789 13.9992
175 8 0.964269 5.1819 13.2374
177 9 1.72931 6.10014 13.5238
181 8 2.6335 5.91743 12.7301
182 9 2.15548 5.91359 12.5606
183 9 1.87938 5.34109 13.115
191 9 0.173126 4.77553 13.5472
64 8 6.17594 7.12465 13.5528
65 9 6.32377 7.1212 13.2191
66 9 5.90559 7.84019 13.0594
73 8 5.07038 6.98376 15.2016
74 9 5.04391 6.05448 14.7417
75 9 5.11526 6.99177 15.1464
103 8 5.92079 5.23247 12.5705
105 9 6.53056 4.76041 12.2611
139 8 8.8192 6.56487 13.0109
140 9 8.65534 5.74418 12.666
141 9 7.96326 6.9395 12.8433
164 9 3.06514 6.05991 13.5508
169 8 7.621 6.21175 14.3361
170 9 7.07289 6.61308 14.2298
171 9 8.37509 5.23405 14.2627
ITEM: TIMESTEP
100
ITEM: NUMBER OF ATOMS
210
ITEM: BOX BOUNDS pp pp ff
-1.5518432000000001e+01 2.7300000000000001e+01
-1.5144239000000001e+01 2.4512238000000000e+01
-1.5000000000000000e+01 3.1365570999999999e+01
ITEM: ATOMS id type x y z
1 1 -3.16451 -0.744524 -0.0264033
2 1 -0.595086 -0.895306 -0.0264033
3 1 -3.0106 1.8727 -0.0264033
4 1 -0.364777 1.79186 -0.0264033
5 1 -4.66602 4.08138 -0.0264033
6 1 -1.97201 4.21157 -0.0264033
11 1 1.27304 -3.09806 -0.0264033
15 1 0.557283 4.20827 -0.0264033
52 2 -0.070397 2.10887 1.3736
56 2 -2.96853 -0.38419 1.3736
59 2 -0.167549 -0.834192 1.3736
12 1 1.82376 -0.502471 -0.0264033
13 1 2.16429 2.16434 -0.0264033
14 1 4.00349 0.320172 -0.0264033
16 1 2.71138 5.32265 -0.0264033
21 1 4.0068 -2.39535 -0.0264033
22 1 6.32921 -1.048 -0.0264033
23 1 6.05434 1.56462 -0.0264033
24 1 8.34592 0.809041 -0.0264033
25 1 4.30196 3.42073 -0.0264033
26 1 6.7837 3.78601 -0.0264033
31 1 8.46221 -2.55823 -0.0264033
32 1 10.386 -0.623557 -0.0264033
33 1 10.0668 2.66463 -0.0264033
35 1 8.80072 5.00961 -0.0264033
36 1 11.2183 4.82991 -0.0264033
53 2 8.18614 1.54597 1.1736
34 1 12.1343 1.29224 -0.0264033
41 1 11.9561 -2.68278 -0.0264033
42 1 13.9152 -0.736363 -0.0264033
43 1 14.6247 1.84086 -0.0264033
44 1 17.2185 1.55883 -0.0264033
45 1 13.5598 4.16596 -0.0264033
46 1 16.1872 4.14219 -0.0264033
58 2 13.5904 -0.436884 1.3736
7 1 -3.30995 6.56657 -0.0264033
8 1 -0.651444 6.45455 -0.0264033
9 1 -4.11329 9.1676 -0.0264033
10 1 -1.40528 8.96983 -0.0264033
19 1 0.685531 10.5826 -0.0264033
60 2 -0.341819 6.37124 1.3736
17 1 1.39109 7.90576 -0.0264033
18 1 3.86595 7.5284 -0.0264033
20 1 3.18974 9.93439 -0.0264033
27 1 5.68369 5.922 -0.0264033
28 1 7.66245 7.4024 -0.0264033
29 1 4.78389 11.9433 -0.0264033
30 1 5.85282 9.20057 -0.0264033
37 1 10.1103 7.17858 -0.0264033
39 1 7.38516 11.5924 -0.0264033
40 1 8.99676 9.64077 -0.0264033
51 2 3.90884 7.18873 1.3736
55 2 7.75589 7.03398 1.3736
78 9 8.6717 6.14555 4.44708
38 1 12.5638 6.9529 -0.0264033
47 1 14.9916 6.4948 -0.0264033
48 1 17.5408 6.79394 -0.0264033
49 1 11.5553 9.42297 -0.0264033
50 1 14.3022 9.3774 -0.0264033
54 2 11.2293 9.07954 1.3736
57 2 14.09 8.65299 1.1736
67 8 1.11379 -0.735778 9.44768
68 9 -0.395337 1.39243 9.76138
69 9 1.30598 2.01664 9.89518
92 9 0.482428 1.32969 11.4621
142 8 0.0212426 3.70066 5.27211
153 9 1.7139 3.48672 7.00261
160 8 -1.45855 1.26374 7.53475
161 9 -0.535159 -1.72626 7.81713
162 9 1.65247 1.38138 7.9365
62 9 7.91992 3.51837 9.35796
82 8 5.09266 5.81818 6.01208
84 9 6.55795 3.08621 6.23784
88 8 4.40721 1.34908 6.66217
89 9 1.90212 2.1761 6.67722
90 9 3.82335 3.7643 6.46456
91 8 2.73488 -0.087841 11.3218
93 9 4.06301 -2.18375 11.0237
95 9 7.8177 4.68723 9.32871
96 9 6.36231 3.496 9.01441
130 8 2.49662 -0.686212 6.557
131 9 5.01409 -1.30348 6.89639
132 9 0.782864 1.359 6.40213
136 8 7.26332 1.29175 10.4711
137 9 7.66305 4.00592 10.4678
138 9 5.66915 3.82796 10.8105
144 9 3.86448 3.52374 5.14532
151 8 0.960861 5.93499 6.74437
152 9 2.77149 4.30003 7.02751
157 8 8.55847 1.39053 5.33639
158 9 6.24037 0.201019 5.29688
188 9 6.67684 2.01699 7.73556
61 8 10.3426 4.02467 9.72004
63 9 12.9825 4.00199 9.96562
85 8 13.3398 0.596398 8.72678
86 9 11.029 -1.61512 8.39101
87 9 9.6148 -1.11578 8.8353
155 9 11.1531 2.11095 6.66279
159 9 11.3202 3.72074 5.78338
166 8 11.8988 -0.868433 10.5484
167 9 9.34176 -0.185888 10.423
168 9 12.7935 2.42769 10.3711
172 8 10.5634 1.41181 8.92835
173 9 8.2616 -0.111419 8.60986
174 9 8.41281 2.53145 8.743
100 8 0.00494135 7.67548 5.07596
101 9 2.32837 10.7169 5.28698
102 9 0.459544 10.2309 5.49745
106 8 1.96898 8.99741 7.11746
108 9 -0.680958 9.40459 6.82587
124 8 0.296332 6.21846 10.8617
125 9 -2.1392 6.71007 10.498
126 9 2.00737 8.53089 10.5853
133 8 -0.481035 9.46959 10.6504
134 9 -2.76072 8.21762 10.6815
135 9 0.781505 11.8024 10.3987
143 9 2.66057 6.44645 4.90855
148 8 -0.519698 7.34281 8.33227
149 9 -2.71944 6.14325 8.41388
150 9 -0.258864 4.1403 8.10817
208 8 3.91678 9.90329 9.33687
209 9 2.10736 7.50495 9.60899
76 8 9.62866 9.0669 4.89414
77 9 6.86681 8.91841 4.93522
79 8 8.01699 10.7476 7.76727
83 9 2.81997 4.7232 5.79063
94 8 4.05101 4.44157 9.07499
107 9 3.39752 6.96124 7.52126
109 8 8.54206 9.2002 10.9889
111 9 8.19711 11.789 10.9673
118 8 5.5181 8.38823 6.92462
119 9 7.89767 8.10764 6.48104
120 9 8.01724 8.15805 7.37236
184 8 3.89375 8.68111 5.14752
185 9 7.07757 7.1968 5.19599
186 9 5.89199 10.6279 5.47089
187 8 7.14795 5.67756 7.32841
189 9 5.61803 3.58426 6.87956
193 8 8.15298 6.42749 10.9966
194 9 10.9405 6.35601 11.1527
195 9 5.28178 7.30359 10.5423
210 9 3.63838 7.08362 9.61906
80 9 10.3378 9.50445 8.2294
81 9 9.48272 8.422 7.57364
110 9 10.7844 10.478 11.4102
154 8 8.92286 3.90312 6.71058
156 9 9.05067 6.82869 6.21671
178 8 11.2042 6.13493 7.15943
179 9 11.7127 3.60252 7.20577
180 9 12.0862 9.01521 7.5695
205 8 13.1099 6.89989 8.79826
206 9 10.2565 7.55308 9.14632
207 9 9.6691 6.40512 9.16421
98 9 -1.71171 3.47799 14.599
114 9 1.28437 -1.36308 13.9473
146 9 1.86878 3.75681 13.4026
176 9 0.354706 3.14148 13.384
190 8 -1.31408 1.19383 13.4889
192 9 -2.97089 3.23396 13.9611
204 9 1.66975 4.54214 11.9573
104 9 7.35169 2.92498 12.3029
112 8 4.08125 -2.38872 14.0647
113 9 4.35199 0.234105 13.9943
145 8 1.93838 1.16341 13.6075
147 9 4.97852 2.26373 13.1805
199 8 5.3769 0.228874 11.6778
200 9 5.43652 -2.37489 11.7583
201 9 5.3347 2.90041 11.6831
202 8 2.99514 2.46593 11.7465
203 9 6.024 2.69486 12.1818
70 8 11.4065 3.52265 12.4586
71 9 10.9333 1.09373 12.004
72 9 11.3157 0.222362 12.8378
196 8 9.67063 -2.01291 12.0999
197 9 9.35751 1.30705 12.0741
198 9 7.62415 -0.597388 12.2954
97 8 -3.10118 6.87514 14.8413
99 9 -0.103977 3.44304 15.0655
115 8 0.163098 5.85482 16.2706
116 9 2.77743 5.19114 16.3392
117 9 0.703806 8.54127 15.8329
121 8 1.74085 11.5759 14.9949
122 9 -1.32835 8.83462 14.7355
123 9 0.154546 9.7083 14.5589
127 8 2.96112 8.64517 14.7562
128 9 4.46273 5.45576 15.0482
129 9 -0.651183 7.63659 14.2623
163 8 2.38501 6.19761 13.7666
165 9 0.367115 7.43139 13.9728
175 8 -1.30899 5.47675 13.211
177 9 0.788575 8.83621 13.4974
181 8 4.12414 4.73518 12.7037
182 9 1.90544 8.36484 12.5342
183 9 0.891738 4.29582 13.0886
191 9 -3.80891 4.70701 13.5208
64 8 4.93187 7.40279 13.5264
65 9 7.07318 8.85837 13.1927
66 9 6.53773 10.2406 13.033
73 8 5.68258 9.50009 15.1752
74 9 5.71409 4.6719 14.7153
75 9 6.79129 6.8078 15.12
103 8 6.63421 5.30317 12.5441
105 9 8.71162 3.56086 12.2347
139 8 10.485 8.36499 12.9845
140 9 9.13066 4.56742 12.6396
141 9 7.42903 7.80138 12.8169
164 9 3.95745 10.6893 13.5244
169 8 9.26096 6.20422 14.3097
170 9 7.9326 8.37179 14.2034
171 9 9.28604 3.50668 14.2362
ITEM: TIMESTEP
104
ITEM: NUMBER OF ATOMS
210
ITEM: BOX BOUNDS pp pp ff
-1.5518432000000001e+01 2.7300000000000001e+01
-1.5144239000000001e+01 2.4512238000000000e+01
-1.5000000000000000e+01 3.1365570999999999e+01
ITEM: ATOMS id type x y z
1 1 -3.16481 -0.744679 -0.0264199
2 1 -0.595304 -0.895547 -0.0264199
3 1 -3.0109 1.87262 -0.0264199
4 1 -0.364936 1.79173 -0.0264199
5 1 -4.66635 4.08136 -0.0264199
6 1 -1.9722 4.21154 -0.0264199
11 1 1.27288 -3.09839 -0.0264199
15 1 0.557197 4.20823 -0.0264199
52 2 -0.0705463 2.10874 1.37358
56 2 -2.96887 -0.384359 1.37358
59 2 -0.167775 -0.83448 1.37358
12 1 1.82354 -0.502687 -0.0264199
13 1 2.16425 2.16425 -0.0264199
14 1 4.00395 0.32019 -0.0264199
16 1 2.7113 5.32279 -0.0264199
21 1 4.00675 -2.3957 -0.0264199
22 1 6.32924 -1.04822 -0.0264199
23 1 6.05365 1.56415 -0.0264199
24 1 8.34612 0.808824 -0.0264199
25 1 4.302 3.42076 -0.0264199
26 1 6.78401 3.78597 -0.0264199
31 1 8.46232 -2.55857 -0.0264199
32 1 10.3862 -0.623761 -0.0264199
33 1 10.0668 2.66467 -0.0264199
35 1 8.80076 5.00976 -0.0264199
36 1 11.2186 4.82998 -0.0264199
53 2 8.18626 1.54578 1.17358
34 1 12.1344 1.29227 -0.0264199
41 1 11.9562 -2.68316 -0.0264199
42 1 13.9152 -0.736529 -0.0264199
43 1 14.625 1.84071 -0.0264199
44 1 17.2189 1.55864 -0.0264199
45 1 13.56 4.16595 -0.0264199
46 1 16.1876 4.14214 -0.0264199
58 2 13.5905 -0.437034 1.37358
7 1 -3.31018 6.56663 -0.0264199
8 1 -0.651557 6.45458 -0.0264199
9 1 -4.11351 9.16777 -0.0264199
10 1 -1.4054 8.96995 -0.0264199
19 1 0.685361 10.583 -0.0264199
60 2 -0.341956 6.3713 1.37358
17 1 1.39098 7.90598 -0.0264199
18 1 3.86603 7.52857 -0.0264199
20 1 3.18966 9.93468 -0.0264199
27 1 5.68353 5.92186 -0.0264199
28 1 7.66234 7.40245 -0.0264199
29 1 4.78383 11.9437 -0.0264199
30 1 5.85287 9.20087 -0.0264199
37 1 10.1104 7.1788 -0.0264199
39 1 7.38523 11.5928 -0.0264199
40 1 8.99671 9.64093 -0.0264199
51 2 3.90882 7.18896 1.37358
55 2 7.75581 7.03409 1.37358
78 9 8.67182 6.14539 4.44706
38 1 12.564 6.95304 -0.0264199
47 1 14.9919 6.49485 -0.0264199
48 1 17.5412 6.79407 -0.0264199
49 1 11.5553 9.42319 -0.0264199
50 1 14.3024 9.37757 -0.0264199
54 2 11.2295 9.07978 1.37358
57 2 14.0902 8.6531 1.17358
67 8 1.11353 -0.735874 9.44766
68 9 -0.395537 1.39239 9.76137
69 9 1.30603 2.0165 9.89516
92 9 0.482216 1.32934 11.4621
142 8 0.0211258 3.70036 5.27209
153 9 1.71382 3.48668 7.00259
160 8 -1.45897 1.26381 7.53474
161 9 -0.53543 -1.72641 7.81711
162 9 1.65246 1.38104 7.93649
62 9 7.92 3.51836 9.35795
82 8 5.09254 5.81815 6.01206
84 9 6.55814 3.08615 6.23783
88 8 4.40732 1.34896 6.66216
89 9 1.90201 2.17573 6.67721
90 9 3.82323 3.76416 6.46455
91 8 2.73489 -0.0879659 11.3218
93 9 4.06279 -2.18407 11.0237
95 9 7.81803 4.68734 9.32869
96 9 6.36211 3.49597 9.01439
130 8 2.49664 -0.686518 6.55698
131 9 5.01406 -1.30379 6.89637
132 9 0.782516 1.3585 6.40211
136 8 7.26347 1.29165 10.471
137 9 7.66303 4.006 10.4678
138 9 5.66892 3.82795 10.8104
144 9 3.8645 3.52363 5.1453
151 8 0.960531 5.935 6.74436
152 9 2.77126 4.30021 7.0275
157 8 8.55843 1.39043 5.33637
158 9 6.2404 0.200641 5.29687
188 9 6.67704 2.01663 7.73555
61 8 10.3428 4.02457 9.72003
63 9 12.9828 4.00229 9.9656
85 8 13.3401 0.596448 8.72677
86 9 11.0293 -1.6154 8.391
87 9 9.61494 -1.11616 8.83528
155 9 11.1533 2.11073 6.66278
159 9 11.3205 3.7209 5.78337
166 8 11.8991 -0.868675 10.5484
167 9 9.34185 -0.186254 10.423
168 9 12.7936 2.42768 10.3711
172 8 10.5635 1.41151 8.92834
173 9 8.2616 -0.111741 8.60985
174 9 8.41302 2.53144 8.74299
100 8 0.00457723 7.67566 5.07594
101 9 2.32847 10.7172 5.28696
102 9 0.459365 10.2311 5.49744
106 8 1.96884 8.99761 7.11745
108 9 -0.681136 9.40484 6.82585
124 8 0.296242 6.21846 10.8617
125 9 -2.13932 6.70998 10.498
126 9 2.00728 8.53111 10.5852
133 8 -0.481119 9.46975 10.6504
134 9 -2.76084 8.21777 10.6814
135 9 0.78168 11.8024 10.3987
143 9 2.66031 6.44682 4.90854
148 8 -0.520118 7.34301 8.33226
149 9 -2.71966 6.14298 8.41386
150 9 -0.259347 4.14037 8.10815
208 8 3.91689 9.90332 9.33685
209 9 2.10719 7.50509 9.60898
76 8 9.62882 9.06687 4.89412
77 9 6.86683 8.91887 4.9352
79 8 8.01724 10.7479 7.76725
83 9 2.81976 4.72344 5.79062
94 8 4.05078 4.44155 9.07497
107 9 3.39732 6.9614 7.52124
109 8 8.54216 9.2004 10.9888
111 9 8.19698 11.7892 10.9672
118 8 5.51807 8.38826 6.9246
119 9 7.89769 8.1078 6.48102
120 9 8.01716 8.15827 7.37234
184 8 3.89374 8.68141 5.1475
185 9 7.07746 7.19686 5.19598
186 9 5.89183 10.6281 5.47088
187 8 7.14793 5.67758 7.3284
189 9 5.61805 3.58422 6.87955
193 8 8.15325 6.42762 10.9966
194 9 10.9408 6.35608 11.1527
195 9 5.28192 7.30377 10.5423
210 9 3.63852 7.08376 9.61904
80 9 10.3381 9.50494 8.22939
81 9 9.48292 8.42208 7.57362
110 9 10.7846 10.4781 11.4102
154 8 8.92307 3.90319 6.71057
156 9 9.05078 6.82867 6.21669
178 8 11.2044 6.13491 7.15941
179 9 11.7131 3.60242 7.20575
180 9 12.0865 9.01527 7.56949
205 8 13.1101 6.89995 8.79825
206 9 10.2567 7.55346 9.1463
207 9 9.66944 6.40513 9.1642
98 9 -1.71183 3.47782 14.599
114 9 1.28435 -1.36329 13.9473
146 9 1.86875 3.75686 13.4026
176 9 0.354388 3.14137 13.384
190 8 -1.31438 1.19365 13.4889
192 9 -2.97128 3.23378 13.9611
204 9 1.66981 4.5422 11.9573
104 9 7.35199 2.92484 12.3029
112 8 4.08138 -2.38894 14.0647
113 9 4.35175 0.233907 13.9943
145 8 1.93811 1.16334 13.6075
147 9 4.97838 2.26346 13.1804
199 8 5.377 0.228636 11.6778
200 9 5.43672 -2.37523 11.7583
201 9 5.33462 2.9001 11.6831
202 8 2.99499 2.46586 11.7465
203 9 6.02411 2.69474 12.1817
70 8 11.4069 3.52253 12.4586
71 9 10.9336 1.09359 12.004
72 9 11.3161 0.221936 12.8378
196 8 9.6708 -2.01327 12.0999
197 9 9.35774 1.30685 12.0741
198 9 7.62421 -0.597786 12.2953
97 8 -3.10161 6.87529 14.8413
99 9 -0.103843 3.44288 15.0655
115 8 0.163002 5.85476 16.2706
116 9 2.77743 5.19129 16.3392
117 9 0.703799 8.54124 15.8329
121 8 1.74067 11.5763 14.9949
122 9 -1.32897 8.83498 14.7355
123 9 0.154392 9.70865 14.5589
127 8 2.96113 8.64542 14.7562
128 9 4.46274 5.45597 15.0482
129 9 -0.651611 7.63662 14.2623
163 8 2.38494 6.1977 13.7666
165 9 0.366887 7.43137 13.9728
175 8 -1.30936 5.47667 13.211
177 9 0.788572 8.83655 13.4974
181 8 4.1242 4.73514 12.7037
182 9 1.90557 8.365 12.5342
183 9 0.891503 4.29596 13.0886
191 9 -3.80937 4.70711 13.5208
64 8 4.93191 7.40294 13.5263
65 9 7.07328 8.85867 13.1927
66 9 6.53784 10.2412 13.033
73 8 5.68274 9.50033 15.1751
74 9 5.71412 4.67181 14.7153
75 9 6.79137 6.80786 15.12
103 8 6.63444 5.30298 12.5441
105 9 8.712 3.56078 12.2347
139 8 10.4852 8.36518 12.9845
140 9 9.13106 4.56749 12.6395
141 9 7.42894 7.80143 12.8168
164 9 3.95743 10.6896 13.5244
169 8 9.26103 6.20432 14.3096
170 9 7.93293 8.3721 14.2034
171 9 9.28629 3.50675 14.2362
ITEM: TIMESTEP
200
ITEM: NUMBER OF ATOMS
210
ITEM: BOX BOUNDS pp pp ff
-1.5518432000000001e+01 2.7300000000000001e+01
-1.5144239000000001e+01 2.4512238000000000e+01
-1.5000000000000000e+01 3.1365570999999999e+01
ITEM: ATOMS id type x y z
11 1 0.951822 -3.71239 -0.0647992
21 1 3.91271 -3.07679 -0.0647992
31 1 8.70376 -3.20388 -0.0647992
41 1 12.2435 -3.44059 -0.0647992
5 1 -5.3085 4.05856 -0.0647992
1 1 -3.69931 -1.0013 -0.0647992
2 1 -0.967218 -1.35572 -0.0647992
3 1 -3.56343 1.72337 -0.0647992
4 1 -0.627215 1.57553 -0.0647992
6 1 -2.34161 4.15566 -0.0647992
15 1 0.379153 4.1119 -0.0647992
52 2 -0.321924 1.85388 1.34477
56 2 -3.50987 -0.688122 1.34477
59 2 -0.548371 -1.31796 1.34477
12 1 1.52548 -0.864102 -0.0647992
13 1 2.11621 1.97648 -0.0647992
14 1 3.9761 -0.207836 -0.0647992
22 1 6.42797 -1.54119 -0.0647992
23 1 5.91219 1.27742 -0.0647992
24 1 8.48954 0.495022 -0.0647992
25 1 4.29198 3.46368 -0.0647992
26 1 7.19468 3.52179 -0.0647992
53 2 8.25192 1.19762 1.14477
32 1 10.7532 -1.01262 -0.0647992
33 1 10.0394 2.76898 -0.0647992
34 1 12.3379 1.36617 -0.0647992
42 1 13.9778 -1.01994 -0.0647992
43 1 15.1416 1.5578 -0.0647992
45 1 14.0853 4.12024 -0.0647992
58 2 13.7624 -0.701071 1.34477
44 1 17.9561 1.18976 -0.0647992
46 1 16.9504 4.06525 -0.0647992
7 1 -3.75093 6.67678 -0.0647992
9 1 -4.55669 9.50458 -0.0647992
16 1 2.53533 5.58344 -0.0647992
8 1 -0.846986 6.51968 -0.0647992
10 1 -1.65761 9.20231 -0.0647992
19 1 0.344287 11.2727 -0.0647992
60 2 -0.563197 6.48572 1.34477
17 1 1.21562 8.30031 -0.0647992
35 1 8.96661 5.28967 -0.0647992
18 1 3.98057 7.85701 -0.0647992
20 1 3.05321 10.4516 -0.0647992
27 1 5.53255 5.66503 -0.0647992
28 1 7.45814 7.49603 -0.0647992
30 1 5.95006 9.80728 -0.0647992
51 2 3.88963 7.57188 1.34477
55 2 7.63072 7.20546 1.34477
78 9 9.45709 4.32766 3.98974
36 1 11.5744 4.95494 -0.0647992
37 1 10.2261 7.55592 -0.0647992
40 1 8.89861 9.96384 -0.0647992
38 1 12.8983 7.2411 -0.0647992
47 1 15.552 6.60858 -0.0647992
49 1 11.6925 9.85256 -0.0647992
50 1 14.6339 9.64106 -0.0647992
54 2 11.4693 9.52347 1.34477
57 2 14.5555 8.89364 1.14477
48 1 18.3107 7.06741 -0.0647992
29 1 4.67726 12.7317 -0.0647992
39 1 7.54785 12.3823 -0.0647992
93 9 1.09885 -4.10006 10.5664
67 8 0.363169 -1.45811 9.41885
68 9 -0.42894 2.36492 9.30405
69 9 1.93494 0.81268 9.43785
92 9 -2.15837 -0.977816 11.0048
142 8 -0.111701 3.14455 5.24328
153 9 1.81198 1.97188 6.54528
160 8 -2.6315 1.3082 7.50593
161 9 -2.87201 -1.79563 7.3598
162 9 2.16034 0.809095 7.47917
89 9 0.247501 -0.474937 6.21989
91 8 2.80818 -0.722283 11.2929
130 8 2.85025 -1.70326 6.52817
132 9 -1.31648 -3.50505 5.9448
152 9 2.24441 5.6385 6.57018
150 9 -1.32884 3.85262 7.65084
62 9 8.50823 4.10724 8.90063
84 9 7.38942 3.43393 5.78051
88 8 4.93428 0.797504 6.63334
90 9 2.74768 3.7019 6.00723
96 9 4.59472 2.57157 8.55708
131 9 3.09173 -4.66059 6.43906
136 8 7.73723 0.908899 10.4422
137 9 5.28572 6.791 10.0105
138 9 5.65236 3.19307 10.3531
144 9 4.84002 3.00453 4.68799
157 8 8.50845 0.777355 5.30756
158 9 5.93538 -0.92521 4.83955
188 9 7.60622 -0.422433 7.27823
173 9 8.82818 -3.07275 8.15253
174 9 8.69072 2.14411 8.28567
94 8 3.34632 4.4536 9.04616
189 9 6.09273 3.21965 6.42223
154 8 9.69497 4.03529 6.68175
61 8 11.3782 3.79066 9.69121
63 9 14.5189 4.50929 9.50829
85 8 14.0924 0.539191 8.69795
86 9 17.3163 -4.00603 7.93368
87 9 12.4969 -3.94747 8.37797
155 9 11.7022 -0.470383 6.20546
159 9 11.8956 3.3812 5.32605
166 8 12.3123 -1.93373 10.5195
167 9 9.4398 -1.40902 9.9657
168 9 13.5427 2.55687 9.91379
172 8 10.7081 0.666156 8.89952
179 9 14.2918 3.81536 6.74844
151 8 -0.291093 5.83108 6.71554
100 8 -0.943947 8.30283 5.04713
101 9 1.49914 11.4255 4.82965
102 9 -0.240658 10.7787 5.04012
106 8 1.47683 10.0739 7.08863
108 9 -2.1654 10.1178 6.36854
124 8 -0.225646 6.28178 10.8328
125 9 -2.96273 6.30596 10.0407
126 9 1.91122 8.73001 10.1279
133 8 -0.785797 10.1391 10.6216
134 9 -3.29639 9.30221 10.2241
143 9 1.56281 8.29125 4.45122
148 8 -1.8958 7.90407 8.30344
149 9 -2.80582 5.44167 7.95655
209 9 0.689999 7.98869 9.15166
83 9 2.32264 7.41993 5.3333
82 8 4.75772 5.45897 5.98325
95 9 9.91991 5.92329 8.87137
208 8 4.29171 10.321 9.30804
77 9 7.09292 10.8394 4.47789
79 8 8.61446 11.3702 7.73844
107 9 3.06281 7.84505 7.06393
109 8 9.08301 10.1851 10.96
118 8 5.49537 8.66107 6.89579
119 9 7.58827 9.73495 6.02371
120 9 8.90128 7.9273 6.91503
184 8 3.66066 9.56125 5.11869
185 9 6.27971 7.37573 4.73866
186 9 4.13543 12.2547 5.01356
187 8 7.21403 5.74933 7.29958
193 8 8.83263 6.97184 10.9678
195 9 6.50595 9.03787 10.085
210 9 5.30508 7.4403 9.16173
76 8 10.0553 9.21236 4.86531
194 9 11.3867 6.37328 10.6954
80 9 10.7009 15.617 7.77207
81 9 11.7408 9.36395 7.11631
110 9 11.9058 10.5995 10.9529
156 9 9.48623 6.59454 5.75938
178 8 11.7389 6.16761 7.1306
180 9 16.5239 8.76452 7.11217
205 8 13.7595 7.43001 8.76943
206 9 12.5768 9.86831 8.68899
207 9 10.3627 8.16647 8.70688
135 9 1.34869 11.3668 9.94142
111 9 6.61351 11.6688 10.5099
112 8 4.37246 -3.10328 14.0358
200 9 3.84293 -4.35528 11.301
196 8 9.95008 -3.06364 12.0711
98 9 -3.81415 3.16515 14.1417
114 9 1.91986 -1.86443 13.49
146 9 1.47183 4.37864 12.9453
176 9 -0.70849 2.74227 12.9267
190 8 -2.30413 0.726005 13.46
192 9 -5.83754 -0.62877 13.5038
204 9 2.46487 5.34867 11.5
145 8 1.07733 0.911584 13.5787
99 9 -0.750265 3.62201 14.6082
183 9 0.0130745 4.5718 12.6313
104 9 10.7648 2.05314 11.8456
113 9 3.73711 -0.590497 13.537
147 9 4.14347 0.700109 12.7231
199 8 6.04095 -1.11805 11.649
201 9 4.68124 1.16598 11.2258
202 8 2.32356 2.41359 11.7177
203 9 6.49799 2.50691 11.7244
198 9 7.39691 -3.26271 11.838
74 9 6.61688 2.7761 14.2579
105 9 10.2557 4.94712 11.7774
70 8 12.8725 3.29955 12.4298
71 9 15.1622 0.534961 11.5467
72 9 17.7255 -3.02531 12.3805
197 9 11.37 0.610849 11.6168
140 9 12.6498 6.56832 12.1822
171 9 10.0827 4.23104 13.7789
191 9 -6.09577 6.64058 13.0635
97 8 -4.22503 7.18477 14.8124
115 8 -0.0354399 5.59712 16.2418
116 9 3.96596 6.83523 15.8818
117 9 0.618078 8.13239 15.3756
122 9 -8.7934 11.9461 14.2782
123 9 -1.81012 14.1793 14.1015
129 9 -2.47243 9.02552 13.805
163 8 2.02461 6.67843 13.7378
165 9 -0.68447 7.07798 13.5154
175 8 -2.58853 5.31102 13.1822
177 9 0.406314 9.37733 13.0401
182 9 2.83228 8.88443 12.0769
127 8 2.7751 9.57061 14.7274
128 9 4.87117 5.75863 14.5909
181 8 4.52057 4.11066 12.6749
64 8 4.90064 8.08215 13.4975
65 9 7.16165 10.2219 12.7354
66 9 4.72438 14.3758 12.5757
73 8 6.20061 10.423 15.1463
75 9 7.06894 7.69541 14.6627
103 8 7.3985 4.8807 12.5152
141 9 7.30674 8.31796 12.3595
164 9 4.19638 11.2943 13.0671
170 9 9.43871 10.1157 13.746
139 8 11.4426 8.76405 12.9557
169 8 9.34678 6.82538 14.2808
121 8 1.31444 12.5252 14.9661
ITEM: TIMESTEP
300
ITEM: NUMBER OF ATOMS
210
ITEM: BOX BOUNDS pp pp ff
-1.5518432000000001e+01 2.7300000000000001e+01
-1.5144239000000001e+01 2.4512238000000000e+01
-1.5000000000000000e+01 3.1365570999999999e+01
ITEM: ATOMS id type x y z
11 1 0.317577 -4.71463 -0.167993
21 1 3.72899 -4.38273 -0.167993
31 1 9.15583 -4.37972 -0.167993
41 1 12.782 -4.72574 -0.167993
5 1 -6.41832 4.00285 -0.167993
1 1 -4.57134 -1.47137 -0.167993
2 1 -1.59699 -2.18403 -0.167993
3 1 -4.43845 1.45107 -0.167993
4 1 -1.03265 1.18951 -0.167993
6 1 -2.96529 4.06003 -0.167993
15 1 0.0570243 3.93032 -0.167993
52 2 -0.749764 1.38308 1.2673
56 2 -4.54614 -1.28274 1.2673
59 2 -1.28735 -2.34424 1.2673
12 1 1.01407 -1.36385 -0.167993
13 1 1.81732 1.43002 -0.167993
14 1 3.9075 -1.29959 -0.167993
22 1 6.66513 -2.41721 -0.167993
23 1 5.79154 0.881269 -0.167993
24 1 8.74871 -0.0554673 -0.167993
25 1 4.03 3.25133 -0.167993
26 1 7.42672 3.23614 -0.167993
53 2 8.41759 0.570138 1.0673
32 1 11.3659 -1.69864 -0.167993
33 1 10.1806 2.72067 -0.167993
34 1 12.7738 1.42022 -0.167993
42 1 14.0943 -1.40794 -0.167993
43 1 16.0348 0.992833 -0.167993
45 1 14.978 4.05349 -0.167993
58 2 13.9111 -1.11137 1.2673
44 1 19.2589 0.50508 -0.167993
46 1 18.281 3.95742 -0.167993
7 1 -4.46597 6.85025 -0.167993
9 1 -5.35931 10.0994 -0.167993
16 1 2.19887 6.0029 -0.167993
8 1 -1.09289 6.66531 -0.167993
10 1 -2.13339 9.58694 -0.167993
19 1 -0.26909 12.4219 -0.167993
60 2 -0.859874 6.79542 1.2673
17 1 0.965303 8.86685 -0.167993
35 1 9.17923 5.62739 -0.167993
18 1 4.14539 8.33434 -0.167993
20 1 2.91032 11.2541 -0.167993
27 1 5.49652 5.69571 -0.167993
28 1 7.33814 7.87111 -0.167993
30 1 6.03233 10.8371 -0.167993
51 2 3.88817 8.27047 1.2673
55 2 7.37214 7.52113 1.2673
78 9 10.7151 3.9797 2.76012
36 1 12.1619 5.1024 -0.167993
37 1 10.4254 8.21006 -0.167993
40 1 8.91266 10.6585 -0.167993
38 1 13.3972 7.81712 -0.167993
47 1 16.4511 6.9089 -0.167993
49 1 12.0093 10.6309 -0.167993
50 1 15.2703 10.0342 -0.167993
54 2 11.8535 10.352 1.2673
57 2 15.4653 9.33802 1.0673
48 1 19.5928 7.61623 -0.167993
29 1 4.53981 14.0827 -0.167993
39 1 7.9737 13.7853 -0.167993
93 9 1.30711 -4.7748 9.33673
67 8 -1.21961 -2.51927 9.34138
68 9 -0.781291 3.4547 8.07443
69 9 2.72945 -0.709865 8.20822
92 9 -2.04642 0.70439 9.77513
142 8 0.151668 1.64784 5.16581
153 9 2.81827 2.48952 5.31565
160 8 -4.33901 0.636655 7.42845
161 9 -7.69 -1.25704 6.13017
162 9 -0.649625 -0.771982 6.24955
89 9 -1.74941 -2.28101 4.99027
91 8 2.31669 -2.28859 11.2155
130 8 3.20216 -3.65443 6.4507
132 9 -2.75729 -7.67607 4.71517
152 9 1.98402 6.89863 5.34056
150 9 -3.11729 2.55164 6.42122
62 9 8.76379 2.76859 7.67101
84 9 8.52916 4.25511 4.55089
88 8 5.32833 -0.00949514 6.55587
90 9 0.709009 4.46589 4.77761
96 9 6.95305 1.40628 7.32746
131 9 1.10751 -5.21304 5.20943
136 8 8.28619 0.482569 10.3648
137 9 3.43539 7.99857 8.78086
138 9 6.20688 3.82829 9.1235
144 9 3.08221 1.01294 3.45836
157 8 8.33424 0.332614 5.23009
158 9 6.80693 -1.67558 3.60993
188 9 5.67898 -2.81702 6.04861
173 9 12.335 -5.6302 6.92291
174 9 10.229 1.00481 7.05605
94 8 2.2328 4.70107 8.96869
189 9 5.58282 2.39337 5.19261
154 8 11.2854 3.84221 6.60428
61 8 12.3239 3.47816 9.61374
63 9 15.4483 5.52071 8.27866
85 8 16.343 -0.0976099 8.62048
86 9 23.1181 -4.62924 6.70406
87 9 14.7884 -1.58912 7.14834
155 9 11.4941 -0.775639 4.97584
159 9 12.5598 1.3083 4.09643
166 8 13.6567 -3.87317 10.4421
167 9 8.81267 -1.79756 8.73607
168 9 14.5186 2.14434 8.68417
172 8 11.3994 -0.647066 8.82205
179 9 13.9246 3.62991 5.51882
151 8 -0.960553 6.20862 6.63807
100 8 -2.54674 9.47754 4.96966
101 9 1.60815 13.4014 3.60002
102 9 -3.825 11.8722 3.8105
106 8 0.418511 11.6502 7.01116
108 9 -5.03033 7.9012 5.13891
124 8 -0.64908 6.38827 10.7554
125 9 -2.67469 6.92343 8.81105
126 9 0.429766 10.1256 8.8983
133 8 -1.0935 11.3843 10.5441
134 9 -5.15979 12.8271 8.9945
143 9 -0.0127775 10.2166 3.2216
148 8 -4.71305 8.86735 8.22597
149 9 -4.87741 6.31834 6.72692
209 9 -1.87075 9.70003 7.92204
83 9 -0.777818 6.90687 4.10368
82 8 4.04732 4.71969 5.90578
95 9 9.91415 6.75203 7.64175
208 8 4.48624 10.7591 9.23057
77 9 11.5529 12.3641 3.24827
79 8 9.56648 12.567 7.66097
107 9 3.52663 8.97957 5.8343
109 8 9.81542 11.9172 10.8826
118 8 5.88966 9.65846 6.81832
119 9 7.1264 11.4498 4.79408